SystemName           # default value
SystemLabel     benzene                                                                         
XML.Write              T     # default value
XML.AbortOnErrors              F     # default value
XML.AbortOnWarnings              F     # default value
timer_report_threshold          0.000000000         # default value
UseTreeTimer              F     # default value
alloc_report_level         0     # default value
alloc_report_threshold          0.000000000         # default value
xc.functional     LDA     # default value
xc.authors     PZ     # default value
MM.Cutoff          30.00000000     Bohr     # default value
MM.UnitsEnergy     eV     # default value
MM.UnitsDistance     Ang     # default value
WriteIonPlotFiles              F     # default value
Atom.Debug.KB.Generation              F     # default value
KB.New.Reference.Orbitals              F     # default value
user-basis              F     # default value
user-basis-netcdf              F     # default value
ReparametrizePseudos              F     # default value
Restricted.Radial.Grid              T     # default value
Rmax.Radial.Grid          0.000000000         # default value
PAO.BasisSize     standard            # default value
PAO.BasisType     split          # default value
PAO.SoftDefault              F     # default value
PAO.SoftInnerRadius         0.9000000000         # default value
PAO.SoftPotential          40.00000000         # default value
PAO.SplitNorm         0.1500000000         # default value
PAO.SplitNormH         -1.000000000         # default value
Number_of_species              2
%block Chemical_species_label
 1    1 H
 2    6 C
%endblock Chemical_species_label
%block PS.lmax
   C 2
%endblock PS.lmax
FilterCutoff          0.000000000     Ry     # default value
FilterTol          0.000000000     Ry     # default value
KB.Rmax          6.000000000     Bohr     # default value
PAO.EnergyShift         0.1000000000E-01         Ry
# above item originally: PAO.EnergyShift         0.1000000000E-01 Ry        
PAO.SplitTailNorm              F     # default value
PAO.FixSplitTable              F     # default value
PAO.NewSplitCode              F     # default value
PAO.Filter              F     # default value
PAO.Keep.Findp.Bug              F     # default value
PAO.Filter              F     # default value
PAO.OldStylePolorbs              T     # default value
PAO.SplitTailNorm              F     # default value
PAO.FixSplitTable              F     # default value
PAO.NewSplitCode              F     # default value
PAO.Filter              F     # default value
Vna.Filter              F     # default value
FilterCutoff          0.000000000     Ry     # default value
FilterTol          0.000000000     Ry     # default value
KB.Rmax          6.000000000     Bohr     # default value
PAO.EnergyShift         0.1000000000E-01         Ry
# above item originally: PAO.EnergyShift         0.1000000000E-01 Ry        
PAO.SplitTailNorm              F     # default value
PAO.FixSplitTable              F     # default value
PAO.NewSplitCode              F     # default value
PAO.Filter              F     # default value
PAO.Filter              F     # default value
PAO.Filter              F     # default value
PAO.Filter              F     # default value
PAO.OldStylePolorbs              T     # default value
PAO.SplitTailNorm              F     # default value
PAO.FixSplitTable              F     # default value
PAO.NewSplitCode              F     # default value
PAO.Filter              F     # default value
Vna.Filter              F     # default value
PAO.BasisType     split          # default value
Atom-Setup-Only              F     # default value
UseStructFile              F     # default value
MD.UseStructFile              F     # default value
LatticeConstant          0.000000000     Bohr     # default value
AtomicCoordinatesFormat     NotScaledCartesianAng                                                           
NumberOfAtoms             12
ZM.UnitsLength     Ang                                                                             
ZM.UnitsAngle     deg                                                                             
ZM.ForceTolLength         0.1555739508E-02    Ry/Bohr
# above item originally: ZM.ForceTolLength         0.4000000000E-01 eV/Ang    
ZM.ForceTolAngle         0.4211129172E-03     Ry/rad
# above item originally: ZM.ForceTolAngle         0.1000000000E-03 eV/deg    
ZM.MaxDisplLength         0.1889726878           Bohr
# above item originally: ZM.MaxDisplLength         0.1000000000     Ang       
ZM.MaxDisplAngle         0.3490658505            rad
# above item originally: ZM.MaxDisplAngle          20.00000000     deg       
ZM.CalcAllForces              F     # default value
%block Zmatrix
 molecule
       2 0 0 0 xm1 ym1 zm1 0 0 0
       2 1 0 0 CC 90.0 60.0 0 0 0
       2 2 1 0 CC CCC 90.0 0 0 0
       2 3 2 1 CC CCC 0.0 0 0 0
       2 4 3 2 CC CCC 0.0 0 0 0
       2 5 4 3 CC CCC 0.0 0 0 0
       1 1 2 3 CH CCH 180.0 0 0 0
       1 2 1 7 CH CCH 0.0 0 0 0
       1 3 2 8 CH CCH 0.0 0 0 0
       1 4 3 9 CH CCH 0.0 0 0 0
       1 5 4 10 CH CCH 0.0 0 0 0
       1 6 5 11 CH CCH 0.0 0 0 0
 constants
         ym1 3.68
 variables
         zm1 6.9032294
         CC 1.417
         CH 1.112
         CCH 120.0
         CCC 120.0
 constraints
         xm1 CC -1.0 3.903229
%endblock Zmatrix
UseSaveData              F     # default value
MD.UseSaveXV              F     # default value
MD.UseSaveZM              F     # default value
WriteCoorInitial              T     # default value
MD.TypeOfRun     CG                                                                              
NetCharge          0.000000000         # default value
