ATOMS
   6         10.60065417         -6.11820827          5.89530466
   6          1.40883902          0.00491263          5.89693895
   6          2.11639311         -1.21976907          5.89493274
   6          3.53056848         -1.21906622          5.88747187
   6          4.23745745         -2.44385855          5.88470590
   6          5.65157932         -2.44398005          5.86976162
   6          6.35867999         -3.66866302          5.87661951
   6          7.77313600         -3.66827211          5.86888449
   6          8.47973078         -4.89321986          5.88452874
   6          9.89392049         -4.89338706          5.88697177
   6         12.72155906         -4.89335588          5.89501797
   6          3.52970738          1.23001902          5.88876004
   6          4.23751640          0.00573569          5.87940509
   6          5.65151059          0.00506435          5.85490958
   6          6.35885771         -1.21968788          5.84600806
   6          7.77324256         -1.21916849          5.82377873
   6          8.48010238         -2.44401332          5.84410808
   6          9.89405218         -2.44391771          5.85119955
   6         10.60079359         -3.66820711          5.87665032
   6         12.01488016         -3.66850990          5.88668156
   6         14.84288006         -3.66898739          5.88737173
   6          5.65110483          2.45376442          5.87280667
   6          6.35870877          1.22968886          5.84780545
   6          7.77306348          1.22940817          5.82507960
   6          8.47999668          0.00513633          5.80330792
   6          9.89352531          0.00555915          5.82097641
   6         10.60061873         -1.21902975          5.84290770
   6         12.01427852         -1.21955492          5.86831825
   6         12.72184102         -2.44392894          5.88479017
   6         14.13591816         -2.44415142          5.89311791
   6         16.96394244         -2.44461035          5.87950594
   6          7.77232102          3.67878135          5.87110852
   6          8.47934512          2.45437690          5.84601738
   6          9.89348595          2.45445352          5.85260524
   6         10.60047590          1.23001227          5.84317623
   6         12.01418133          1.23005577          5.86798039
   6         12.72159438          0.00527858          5.87624244
   6         14.13563548          0.00557806          5.89287431
   6         14.84297424         -1.21932372          5.89528847
   6         16.25747055         -1.21972171          5.89389468
   6         19.08535534         -1.21969327          5.88605616
   6          9.89377724          4.90368558          5.88820994
   6         10.60065770          3.67850417          5.87838113
   6         12.01494541          3.67902293          5.88702951
   6         12.72184615          2.45433046          5.88397514
   6         14.13621007          2.45455249          5.89052239
   6         14.84342280          1.22988088          5.89342366
   6         16.25785344          1.22996996          5.89186039
   6         16.96461309          0.00505807          5.89403856
   6         18.37855948          0.00523822          5.89113098
   8          8.63575854         -0.06453584          8.63206212
   8          8.60386218         -0.06325591          9.90129097
BEGIN_BLOCK_DATAGRID_3D
 DATA_from:graphene-O2.RHO
 BEGIN_DATAGRID_3D_RHO:spin_1
     2     2     2
  0.0000000E+00  0.0000000E+00  0.0000000E+00
  1.0605932E+01  6.1233380E+00  0.0000000E+00
  1.0605932E+01 -6.1233380E+00  0.0000000E+00
  0.0000000E+00  0.0000000E+00  1.5003363E+01
  0.00000E+00  0.00000E+00  0.00000E+00  0.00000E+00  0.00000E+00  0.00000E+00
  0.00000E+00  0.00000E+00
 END_DATAGRID_3D
END_BLOCK_DATAGRID_3D
